% Model:              cali 3.02 0.91mm 校准.mph
% Version:            COMSOL 5.6.0.280
% Date:               Mar 23 2023, 21:14
% Table:              表格 1 - 全局计算 1
% freq (Hz)              real(emw.S11) (1)        imag(emw.S11) (1)
300000000                0.3682889707427558       -0.9245509624199336
330000000                0.2560407747366581       -0.9611890916984154
360000000                0.14041057751649683      -0.984193673258178
390000000                0.02306149172768919      -0.9932933071581588
420000000                -0.09432907175240537     -0.9884210353019101
450000000                -0.21009480467998767     -0.96971346672077
480000000                -0.32260541268173865     -0.9375067036279678
510000000                -0.43029062682083874     -0.8923291863462149
540000000                -0.5316629300729375      -0.834891628311853
570000000                -0.6253386430631436      -0.7660742610933113
600000000                -0.7100570504136745      -0.6869116524875915
630000000                -0.7846972902899535      -0.5985753978629013
660000000                -0.8482927752318382      -0.5023550148374104
690000000                -0.900042959465888       -0.3996373945570944
720000000                -0.9393223161082119      -0.29188517794760727
750000000                -0.9656864333803107      -0.18061443356351067
780000000                -0.9788751794034543      -0.0673720155036615
810000000                -0.9788129146536797      0.04628702404813251
840000000                -0.9656057380995936      0.15882159732148735
870000000                -0.9395357147102468      0.2687259440461444
900000000                -0.9010518930590768      0.374549781125751
930000000                -0.8507575416055829      0.4749166624324899
960000000                -0.7893920176113781      0.5685393849488668
990000000                -0.7178028358435462      0.6542290224776756
1020000000               -0.6368949608469794      0.7308841920212601
1050000000               -0.5475199013782822      0.797392357251955
1080000000               -0.4503008342190329      0.851987510107281
1110000000               -0.3489737006887043      0.8892584658433427
1140000000               -0.25574799608110743     0.9212308738700833
1170000000               -0.15022543857599918     0.9476442566800366
1200000000               -0.04131174825315771     0.9585291537876182
1230000000               0.06736459456149611      0.9560508854830445
1260000000               0.17439072104201117      0.9411004269230369
1290000000               0.2785054021733343       0.9142204782054884
1320000000               0.37848223407475745      0.8759530699268885
1350000000               0.4731456552576912       0.8269237311064789
1380000000               0.5613909654337589       0.7678604525417819
1410000000               0.6421999699007004       0.6995929865815617
1440000000               0.7146526540871723       0.6230447646329783
1470000000               0.7779351581784593       0.5392214838275537
1500000000               0.8313433157136206       0.4491982315679093
1530000000               0.8742792351154673       0.35410726296956685
1560000000               0.9062346500970865       0.2551328375546508
1590000000               0.9267495123522036       0.15353999159337117
1620000000               0.9353686329516759       0.05084988854209835
1650000000               0.9320824524360216       -0.05063100636263185
1680000000               0.9193573055848809       -0.14898382448642883
1710000000               0.8983284565048039       -0.24662015442886284
1740000000               0.8660959270256356       -0.3428205614098626
1770000000               0.82269239223643         -0.4347624956479442
1800000000               0.7691658784876954       -0.5208269331661006
1830000000               0.7065055510895188       -0.5998282909642558
1860000000               0.635799015659623        -0.6706583291491357
1890000000               0.5584677614865029       -0.7323526796876543
1920000000               0.4763204663769937       -0.7845023435159311
1950000000               0.3909252922301999       -0.827698132727742
1980000000               0.3026049336021943       -0.8628578325154642
2010000000               0.21093409381105294      -0.8898004595458002
2040000000               0.11619426997550503      -0.9074193497487091
2070000000               0.01954036852568333      -0.914782161102432
2100000000               -0.07758126773973811     -0.9114899961939185
2130000000               -0.1737600531368722      -0.8975276329922454
2.16E9                   -0.2676776431244939      -0.8731008614692256
2.19E9                   -0.35807349308122527     -0.8385657676713815
2.22E9                   -0.4436956601980782      -0.7944362890229267
2.25E9                   -0.5232782889808766      -0.7414797761295836
2.28E9                   -0.5956681429684938      -0.6809139266313778
2.31E9                   -0.6603406742547817      -0.6144667033612405
2.34E9                   -0.7179671799701719      -0.5435403692287583
2.37E9                   -0.7693938782765403      -0.46798400577558663
2.4E9                    -0.8139879126925188      -0.3870948271853175
2.43E9                   -0.8503666707308339      -0.30119341389342025
2.46E9                   -0.8774917153683628      -0.21133730763599923
2.49E9                   -0.8947437302349253      -0.11880544791248655
2.52E9                   -0.9018383647172814      -0.024920969648250902
2.55E9                   -0.8987431829128552      0.06904856018490546
2.58E9                   -0.8855911269288994      0.16191541013715713
2.61E9                   -0.8626360279509996      0.2525545356105469
2.64E9                   -0.8302436289289643      0.3398866199624695
2.67E9                   -0.7889005239898479      0.4228741773404373
2.7E9                    -0.7392308259703396      0.5005341594384676
2.73E9                   -0.682011548883634       0.5719715171164804
2.76E9                   -0.6181707293940204      0.6364363597505585
2.79E9                   -0.5487449195718583      0.6933933606897047
2.82E9                   -0.47478261887647677     0.7425671798815277
2.85E9                   -0.3972177376885882      0.7839183326164316
2.88E9                   -0.3167705659401124      0.8175350095114118
2.91E9                   -0.23393235385663955     0.8434651125285666
2.94E9                   -0.1490876882589733      0.8615523090432492
2.97E9                   -0.06276017648562747     0.8714216563412901
3.0E9                    0.024218814725065842     0.8726950893071086