% Model:              cali 3.02 0.91mm 校准-正常组织.mph
% Version:            COMSOL 5.6.0.280
% Date:               Jun 23 2023, 10:55
% Table:              表格 1 - 全局计算 1
% freq (Hz)              real(emw.S11) (1)        imag(emw.S11) (1)
300000000                0.004113946889957987     -0.9915402620273769
330000000                -0.15027319415297172     -0.9787782626426884
360000000                -0.3005000984959851      -0.942038483566366
390000000                -0.4428506698822813      -0.8823201523195711
420000000                -0.5738166465111939      -0.8012025421333393
450000000                -0.6902138171699368      -0.7008026199867349
480000000                -0.7892276905607112      -0.5836853379031365
510000000                -0.8684892478070121      -0.45284011242073635
540000000                -0.9261465289768935      -0.31158256652186467
570000000                -0.9609019014254914      -0.163466773690374
600000000                -0.972040436685055       -0.0121941209729743
630000000                -0.9594445164422556      0.1384806601822838
660000000                -0.9235968859650724      0.28484968039804737
690000000                -0.8655480738735382      0.42335263262383277
720000000                -0.7868892123207436      0.5506424193081586
750000000                -0.6897207725783749      0.6636842050549873
780000000                -0.5765809872466171      0.7598350692031165
810000000                -0.45036887130565123     0.8368981445947548
840000000                -0.31427368439604453     0.8931625381631806
870000000                -0.1717005702202693      0.9274458459733051
900000000                -0.02617821216569656     0.9391251922575796
930000000                0.11874036026326298      0.9281409640865639
960000000                0.2595605973188951       0.8949786235314664
990000000                0.39292016282851616      0.8406556963644709
1020000000               0.5156748569440962       0.7666981507738098
1050000000               0.6249784609627348       0.6750939864293767
1080000000               0.7183494462792361       0.5682347690649474
1110000000               0.7937258514696194       0.4488481665284721
1140000000               0.8495059913306126       0.31992391462888525
1170000000               0.8845756122205213       0.1846386942100919
1200000000               0.8983260111879976       0.04628103519379001
1230000000               0.8906629342950989       -0.09182660862535197
1260000000               0.8620032271813955       -0.226407066762223
1290000000               0.8132595022998974       -0.3543061870907148
1320000000               0.7458127057998208       -0.4725679315991608
1350000000               0.6614721053085951       -0.5785039987031131
1380000000               0.5624244114303638       -0.6697547351430695
1410000000               0.45117490971269786      -0.7443396811003125
1440000000               0.33048317690552304      -0.8006975687970951
1470000000               0.20329493234816384      -0.8377162081865548
1500000000               0.07267081993506785      -0.8547522269533462
1530000000               -0.058286811910349456    -0.8516400102741356
1560000000               -0.18650742617600535     -0.8286893332638524
1590000000               -0.30902421720497686     -0.7866717367629643
1620000000               -0.4230426720383502      -0.7267960816287911
1650000000               -0.5260041114032847      -0.6506739659827119
1680000000               -0.6156426559036894      -0.5602759900481984
1710000000               -0.6900342999074687      -0.45788013721421444
1740000000               -0.74763706952137        -0.3460136965960201
1770000000               -0.7873214846088867      -0.22739022494058758
1800000000               -0.8083907523335125      -0.10484312765799014
1830000000               -0.8105903668390255      0.018742470162272453
1860000000               -0.7941070907835241      0.14049785743689625
1890000000               -0.7595575952643883      0.2576372286514416
1920000000               -0.7079672817906911      0.3675210106110962
1950000000               -0.6407399984302891      0.4677146407128725
1980000000               -0.5596195234813578      0.5560415432068909
2010000000               -0.4666438513957835      0.6306291833472009
2040000000               -0.36409347730251124     0.6899472415741988
2070000000               -0.25443501787063366     0.7328371528856393
2100000000               -0.14026160484450437     0.7585324931464575
2130000000               -0.02423153311425104     0.7666699451538639
2.16E9                   0.09099336200416525      0.7572908244799539
2.19E9                   0.20280817486723937      0.7308333745397524
2.22E9                   0.3087229078420142       0.688116245013402
2.25E9                   0.40641672606008294      0.6303137463777402
2.28E9                   0.49378737988263277      0.5589236280736666
2.31E9                   0.5689948225481082       0.4757282616893903
2.34E9                   0.6304981990925711       0.3827502241714644
2.37E9                   0.6770855426113919       0.2822033687999827
2.4E9                    0.7078956841907623       0.17644054040005233
2.43E9                   0.7224320587317585       0.0678991350209509
2.46E9                   0.7205682670227156       -0.040954278537627314
2.49E9                   0.7025454298853472       -0.14767906582717283
2.52E9                   0.668961539864921        -0.24991418492446887
2.55E9                   0.6207531768148709       -0.3454292719743278
2.58E9                   0.5591701035952712       -0.432172104253655
2.61E9                   0.48574339525244314      -0.5083114828208746
2.64E9                   0.4022478776232268       -0.5722746852347509
2.67E9                   0.3106597580486252       -0.6227787615659199
2.7E9                    0.21311041980519807      -0.6588550827347702
2.73E9                   0.11183742192499545      -0.6798666965010861
2.76E9                   0.009133795085581297     -0.6855182014686788
2.79E9                   -0.09270324818653074     -0.6758580101288673
2.82E9                   -0.19142306691746588     -0.6512730357379519
2.85E9                   -0.28487070570403        -0.6124760010666906
2.88E9                   -0.371033310059918       -0.5604857265028437
2.91E9                   -0.4480828503069095      -0.4966009067975543
2.94E9                   -0.5144142503807284      -0.42236802638727733
2.97E9                   -0.5686781275310769      -0.3395441890201288
3.0E9                    -0.6098074766616238      -0.25005574520565566
3.03E9                   -0.6370377759761221      -0.1559536878929707
3.06E9                   -0.6499201451997636      -0.059366850391617765
3.09E9                   -0.648327349967109       0.03754602079434581
3.12E9                   -0.6324526117494855      0.13264423277095394
3.15E9                   -0.6028013477345623      0.22385208064914455
3.18E9                   -0.5601761248807943      0.30920371641591293
3.21E9                   -0.5056552629295595      0.38688498228480395
3.24E9                   -0.44056565868853065     0.45527132367975054
3.27E9                   -0.3664505249723101      0.5129610017014132
3.3E9                    -0.2850328396102559      0.558802945628103
3.33E9                   -0.1981753808673714      0.5919187193647276
3.36E9                   -0.10783828397128269     0.61171821792265
3.39E9                   -0.01603508879555946     0.617908857045978
3.42E9                   0.07521173888884719      0.6104981672881711
3.45E9                   0.16391484029416842      0.5897898495835804
3.48E9                   0.24816460923094522      0.5563734893691163
3.51E9                   0.3261695596356553       0.5111082577011435
3.54E9                   0.39629359183756674      0.45510104816556585
3.57E9                   0.4570894172525735       0.3896796056345662
3.6E9                    0.5073274966413898       0.31636129561117715
3.63E9                   0.546019952673918        0.23681823982844322
3.66E9                   0.5724390309007225       0.15283960426818982
3.69E9                   0.5861298019378122       0.06629186940785456
3.72E9                   0.5869169193967245       -0.02092206077880372
3.75E9                   0.5749053708096081       -0.10690404471108145
3.78E9                   0.5504752802806264       -0.18980132405383215
3.81E9                   0.5142709401265091       -0.267845742291787
3.84E9                   0.4671843623560495       -0.33939076146949426
3.87E9                   0.4103337478252529       -0.40294553005409633
3.9E9                    0.3450373696445981       -0.4572053207138626
3.93E9                   0.2727834561591724       -0.5010777354804001
3.96E9                   0.19519673631841777      -0.5337041654364074
3.99E9                   0.11400237467582192      -0.5544760919012693
4.02E9                   0.03098807363701646      -0.5630459239392817
4.05E9                   -0.052034844484258616    -0.5593321813788493
4.08E9                   -0.13327054444734596     -0.5435189511515834
4.11E9                   -0.21097714141878374     -0.5160496654552402
4.14E9                   -0.28350370389326135     -0.4776153704938795
4.17E9                   -0.3493250128606817      -0.42913777182810997
4.2E9                    -0.40707334441387166     -0.37174745399458
4.23E9                   -0.45556660983342234     -0.3067577754016815
4.26E9                   -0.49383226904334426     -0.23563503204498285
4.29E9                   -0.5211265284834755      -0.15996556294419087
4.32E9                   -0.5369484407692865      -0.08142053430052375
4.35E9                   -0.5410486384680809      -0.0017191865985925617
4.38E9                   -0.5334325551386297      0.0774086422054702
4.41E9                   -0.5143581104365929      0.1542598941929112
4.44E9                   -0.4843279594780411      0.2271947556411701
4.47E9                   -0.44407652665906183     0.29467142175761674
4.5E9                    -0.39455215778495645     0.35527842180232366
4.53E9                   -0.3368948288736931      0.407763826958901
4.56E9                   -0.27240994292940013     0.4510607404514871
4.59E9                   -0.20253882526143158     0.48430855919260773
4.62E9                   -0.12882659188881398     0.5068695959910227
4.65E9                   -0.05288811319166804     0.5183407584601701
4.68E9                   0.023627174580625798     0.5185600925035553
4.71E9                   0.0990708440257901       0.5076081117925367
4.74E9                   0.171830675357727        0.4858039474080273
4.77E9                   0.24036473697881977      0.45369646125574126
4.8E9                    0.30323364089751303      0.41205057074850854
4.83E9                   0.3591303151268706       0.3618291285938521
4.86E9                   0.4069066968031317       0.3041707885932935
4.89E9                   0.4455968220129366       0.24036436483959223
4.92E9                   0.4744358695431128       0.17182025639623522
4.95E9                   0.49287480410765583      0.10003956170963468
4.98E9                   0.5005903582182712       0.026581546083910074
5.01E9                   0.49749018898062225      -0.046969848822842795
5.04E9                   0.48371314494856943      -0.11903975245280565
5.07E9                   0.4596246769920205       -0.18809567006996053
5.1E9                    0.42580752436172153      -0.252679659724116
5.13E9                   0.3830479010888288       -0.31143872393080047
5.16E9                   0.3323174970217835       -0.3631527983382884
5.19E9                   0.27475169069776956      -0.4067597711514168
5.22E9                   0.2116244463530828       -0.44137702938416523
5.25E9                   0.14432043346988088      -0.4663191000843919
5.28E9                   0.07430496284021847      -0.4811110354653405
5.31E9                   0.003092377224298559     -0.4854972789015557
5.34E9                   -0.06778643390937518     -0.47944584250065836
5.37E9                   -0.1368167080712576      -0.4631477247643441
5.4E9                    -0.2025319805752088      -0.4370115967317503
5.43E9                   -0.26354507183767295     -0.4016538849708724
5.46E9                   -0.31857723566389684     -0.35788447769416903
5.49E9                   -0.3664848525814243      -0.306688373937413
5.52E9                   -0.4062831054225197      -0.24920368294213657
5.55E9                   -0.43716614022145794     -0.1866964595736351
5.58E9                   -0.4585232926906495      -0.12053292975234314
5.61E9                   -0.46995104736355686     -0.05214971576632722
5.64E9                   -0.47126049097593736     0.016977286489881303
5.67E9                   -0.4624801215278576      0.08536469895132087
5.7E9                    -0.4438539773547232      0.15155343037384714
5.73E9                   -0.4158351538423616      0.21413973577436518
5.76E9                   -0.379074876665113       0.2718048990859074
5.79E9                   -0.3344073971013347      0.32334290665615606
5.82E9                   -0.2828310647498164      0.36768552833525014
5.85E9                   -0.22548601376039584     0.40392428467664043
5.88E9                   -0.16362896864106669     0.4313288517046334
5.91E9                   -0.09860573337199466     0.44936153667353795
5.94E9                   -0.03182197182686188     0.4576875472483691
5.97E9                   0.03528708238038476      0.4561808702584764
6.0E9                    0.101287332790975        0.4449256723613686
